3671
Lattice="55.15350491259771 0.0 3.680226501607361e-05 4.2289392269873974e-05 55.71345269068901 -1.7880089403309766e-05 0.0 0.0 55.15350439280487" Properties=species:S:1:pos:R:3:momenta:R:3:forces:R:3:charge:R:1 energy=-24941.420108981172 stress="0.013408588902504435 2.505936616947654e-05 0.0001348132387834927 2.505936616947654e-05 0.0074848103736913025 -8.113567858006567e-06 0.0001348132387834927 -8.113567858006567e-06 0.004036865565288019" pbc="T T T"
Ce       3.93953538       0.00000249       1.96978700       0.00000000       0.00000000       0.00000000      -0.00856367      -0.01167901      -1.85289683       2.27449751
Ce       3.93830958      -0.00149649       5.60065384       1.03516962       0.85975356      -1.66650864      -0.00697976      -0.00268942       0.00285934       2.14783287
Ce       1.96976976       2.78566999       0.00001880       0.00000000       0.00000000       0.00000000      -0.00754136       0.00110641       3.13150665       2.17023635
Ce       1.96791724       2.78395423       3.96553291      -0.26237732       2.76887357       2.22238326      -0.00007161       0.00193703      -0.00142141       2.25778890
O        3.93953666       1.39286151       0.00001977       0.00000000       0.00000000       0.00000000       0.00521720       1.34884947      -0.27822829      -1.11874437
O        3.93948947       1.39080553       3.87525188       0.15422005       0.43990593       1.35152007       0.00202012       0.00390693      -0.00043538      -1.08683217
O        1.96922881       1.28922779       5.74962523      -1.18094231       0.62475774       0.07740949       0.00162191       0.00097295      -0.00019365      -1.10920525
O        1.96976937       1.39286110       1.96978622       0.00000000       0.00000000       0.00000000       0.00055111       0.28539727      -0.36226892      -1.11133158
O        1.97188945       4.27866614       5.75124440       0.12700790      -0.81828330       0.03239012      -0.00209625      -0.00080861       0.00033119      -1.10922575
O        1.96977167       4.17848413       1.96978505       0.00000000       0.00000000       0.00000000       0.00526202      -0.28455771      -0.36329848      -1.11146164
O        0.00000395       4.17848396       0.00001609       0.00000000       0.00000000       0.00000000       0.00287936      -1.34861904      -0.27961986      -1.11861861
O        0.00005170       4.17843279       3.87588210      -0.74089812      -0.51568894       0.64673969       0.00324163       0.00248158       0.00052395      -1.08669424
Ce       3.93953961       5.57134776       1.96978521       0.00000000       0.00000000       0.00000000      -0.03143754      -0.03366338      -1.85897719       2.27430391
Ce       3.93236754       5.56725709       5.60095239       0.10113370      -0.10395736      -2.97625807      -0.00353341      -0.00265990       0.00494732       2.14783502
Ce       1.96977399       8.35701526       0.00001701       0.00000000       0.00000000       0.00000000      -0.02001604       0.00489521       3.13030062       2.17014551
Ce       1.96377148       8.35625441       3.96396327      -1.43159752      -3.19190086      -2.93970742       0.00045105      -0.00450246      -0.00123295       2.25785875
O        3.93954089       6.96420678       0.00001798       0.00000000       0.00000000       0.00000000       0.01712398       1.34945770      -0.27641134      -1.11886108
O        3.93791805       6.95978193       3.87470291      -0.39092808       1.47940000       0.07741250       0.00107299       0.00444202      -0.00397335      -1.08674192
O        1.96862466       6.85758175       5.74966698       0.07169841       0.79411120       0.42786261      -0.00134374       0.00316515      -0.00007042      -1.10928369
O        1.96977360       6.96420636       1.96978443       0.00000000       0.00000000       0.00000000       0.00011967       0.28568159      -0.36535333      -1.11133063
O        1.96682930       9.84652769       5.75116051      -0.04546769       0.72781648       0.25239376       0.00065976      -0.00222210      -0.00032970      -1.10873151
O        1.96977590       9.74982940       1.96978326       0.00000000       0.00000000       0.00000000      -0.00382116      -0.28993809      -0.37179222      -1.11117780
O        0.00000818       9.74982923       0.00001430       0.00000000       0.00000000       0.00000000       0.00580875      -1.35360898      -0.28422300      -1.11855876
O       -0.00127280       9.74871636       3.87497834       0.27271072      -1.31255622      -0.87649465       0.00072554      -0.00039877      -0.00360050      -1.08682430
Ce       3.93954384      11.14269303       1.96978342       0.00000000       0.00000000       0.00000000      -0.06462825      -0.03858393      -1.85990070       2.27409339
Ce       3.91563910      11.14021842       5.60061995       0.90694460       0.50955191      -2.58392289      -0.00236726       0.00160527       0.00146771       2.14809895
Ce       1.96977822      13.92836053       0.00001522       0.00000000       0.00000000       0.00000000      -0.02376931       0.02356956       3.13167163       2.16916418
Ce       1.95740191      13.93021244       3.95779457      -0.68308038       1.91083458       0.70702918       0.00108125       0.00054975       0.00087863       2.25868392
O        3.93954512      12.53555204       0.00001619       0.00000000       0.00000000       0.00000000       0.02399924       1.34619208      -0.27679565      -1.11871636
O        3.92740896      12.52668568       3.86993548      -0.82518773       0.33144090      -0.22131930       0.00157329       0.00028965      -0.00021254      -1.08717430
O        1.96261780      12.42622550       5.75189094      -1.07432960       2.29626221      -0.03126456      -0.00038381      -0.00123209      -0.00025666      -1.10932803
O        1.96977783      12.53555163       1.96978264       0.00000000       0.00000000       0.00000000      -0.01522594       0.28448184      -0.39275678      -1.11068022
O        1.95491855      15.41439233       5.74718963      -0.12321077      -0.17413183      -0.75575635      -0.00237196       0.00205828      -0.00018623      -1.10813844
O        1.96978013      15.32117466       1.96978147       0.00000000       0.00000000       0.00000000      -0.03963788      -0.31191774      -0.41597090      -1.10977554
O        0.00001241      15.32117450       0.00001252       0.00000000       0.00000000       0.00000000       0.00702461      -1.36496778      -0.29741421      -1.11813354
O       -0.00196632      15.31890267       3.86787569       0.12005216       0.65183373       0.00374744      -0.00137359       0.00047400      -0.00164996      -1.08697474
Ce       3.93954807      16.71403830       1.96978163       0.00000000       0.00000000       0.00000000      -0.05334976       0.03433149      -1.85165472       2.27387619
Ce       3.90053401      16.71658380       5.59741014      -1.84167960       0.73830446      -3.86514507      -0.00268247      -0.00574322       0.00090888       2.14833021
Ce       1.96978245      19.49970580       0.00001343       0.00000000       0.00000000       0.00000000      -0.00945197       0.00043453       3.14622054       2.16882610
Ce       1.96242762      19.50489863       3.95822985      -3.73585176      -0.14394125       2.28423795      -0.00006777       0.00558371       0.00057846       2.26006222
O        3.93954935      18.10689731       0.00001441       0.00000000       0.00000000       0.00000000       0.00242397       1.35578690      -0.29831200      -1.11793554
O        3.91593386      18.10207711       3.86141088       0.64175025       1.78585719      -0.95911732       0.00193008       0.00274252       0.00176156      -1.08729315
O        1.95546250      17.99983234       5.75616654      -0.88129948       0.09047496       0.06496683      -0.00017722       0.00026366      -0.00092126      -1.10962987
O        1.96978206      18.10689690       1.96978086       0.00000000       0.00000000       0.00000000      -0.04087310       0.29573280      -0.43668093      -1.11016130
O        1.96052521      20.99030699       5.74423182       0.11068647       0.17414244      -0.39204266      -0.00302390      -0.00033325      -0.00110018      -1.10823774
O        1.96978436      20.89251993       1.96977968       0.00000000       0.00000000       0.00000000      -0.03167631      -0.30478059      -0.41761677      -1.10915923
O        0.00001664      20.89251977       0.00001073       0.00000000       0.00000000       0.00000000       0.00669389      -1.35945683      -0.29617317      -1.11778331
O        0.00007834      20.89346043       3.86688296       0.30532135      -0.66778484      -0.49606386      -0.00125072       0.00021970       0.00163719      -1.08635521
Ce       3.93955230      22.28538357       1.96977984       0.00000000       0.00000000       0.00000000      -0.00988133       0.05433891      -1.81986107       2.27393889
Ce       3.93548395      22.28740251       5.59791882      -1.98419175      -2.68124146      -0.40135918       0.00136526       0.00384850      -0.00191643       2.14941692
Ce       1.96978668      25.07105107       0.00001164       0.00000000       0.00000000       0.00000000       0.00827057       0.00000065       3.15608840       2.16920376
Ce       1.97257434      25.07027988       3.96400826      -2.82620118      -0.08933749      -0.60793132       0.00231603      -0.00163480      -0.00020264       2.26098967
O        3.93955358      23.67824258       0.00001262       0.00000000       0.00000000       0.00000000      -0.01665549       1.35722393      -0.30482757      -1.11748576
O        3.92914539      23.67367465       3.86526421      -1.72457242       0.21989541       0.11468201       0.00161282       0.00187034       0.00048143      -1.08612072
O        1.96548336      23.57472897       5.75020700      -0.84796343      -0.21293893       0.22900375      -0.00379625      -0.00059221      -0.00064284      -1.10881519
O        1.96978629      23.67824217       1.96977907       0.00000000       0.00000000       0.00000000      -0.01918780       0.29436017      -0.41820395      -1.10990703
O        1.96878769      26.56510062       5.75055623      -1.05464395       0.19008378      -2.07874531      -0.00154387      -0.00041651      -0.00039203      -1.10878396
O        1.96978858      26.46386520       1.96977790       0.00000000       0.00000000       0.00000000      -0.01143356      -0.29265474      -0.41075395      -1.10999954
O        0.00002087      26.46386504       0.00000894       0.00000000       0.00000000       0.00000000       0.00324264      -1.35391759      -0.29472335      -1.11760890
O        0.00351418      26.46628040       3.87030964      -0.38105279       0.04619787      -1.05352981       0.00063212      -0.00306950       0.00170310      -1.08623171
Ce       3.93955653      27.85672884       1.96977806       0.00000000       0.00000000       0.00000000      -0.00147287      -0.06298590      -1.81502661       2.27428722
Ce       3.94466340      27.85024461       5.59824623       0.00353284       1.88590041      -2.63158330       0.00095011       0.00261437      -0.00174557       2.14926076
Ce       1.96979091      30.64239634       0.00000986       0.00000000       0.00000000       0.00000000       0.00360185      -0.00036533       3.14568136       2.16901970
Ce       1.96470513      30.63543058       3.96086090       2.10369824      -1.39739873       0.33118840       0.00152629      -0.00181854       0.00179671       2.25993848
O        3.93955780      29.24958785       0.00001083       0.00000000       0.00000000       0.00000000      -0.00455354       1.36591049      -0.30268138      -1.11776483
O        3.92761390      29.24624011       3.86310474      -0.09279561      -0.69419481      -0.02921574      -0.00069334       0.00039969      -0.00095651      -1.08659983
O        1.96318022      29.14875398       5.74437656       0.80546321      -0.54817180       0.26295452      -0.00096377       0.00177485      -0.00065372      -1.10799074
O        1.96979052      29.24958744       1.96977728       0.00000000       0.00000000       0.00000000      -0.02660684       0.30296616      -0.41083365      -1.10941410
O        1.95431070      32.13999704       5.75565880      -0.98102622      -0.42036438      -1.66061677       0.00033541      -0.00162171      -0.00065912      -1.10928476
O        1.96979281      32.03521047       1.96977611       0.00000000       0.00000000       0.00000000      -0.03947272      -0.29134745      -0.41713541      -1.11049795
O        0.00002510      32.03521030       0.00000715       0.00000000       0.00000000       0.00000000      -0.00236268      -1.34863818      -0.28779731      -1.11786509
O       -0.00321042      32.03872427       3.87199664       0.02691666      -0.11966362      -0.25131363       0.00015367      -0.00511108      -0.00143435      -1.08618426
Ce       3.93956076      33.42807411       1.96977627       0.00000000       0.00000000       0.00000000      -0.02634718      -0.07782400      -1.84524162       2.27401400
Ce       3.90751181      33.42354478       5.59791426      -1.95270881       1.43958148      -0.35439804      -0.00276477       0.00005728       0.00136244       2.14847469
Ce       1.96979514      36.21374160       0.00000807       0.00000000       0.00000000       0.00000000      -0.00608235      -0.00156045       3.12874817       2.16872978
Ce       1.96147411      36.20982253       3.95380648      -1.23847415       1.13955423       0.84608907       0.00016172      -0.00347659       0.00030591       2.25878143
O        3.93956203      34.82093312       0.00000904       0.00000000       0.00000000       0.00000000       0.00726988       1.37108891      -0.30197933      -1.11830556
O        3.91755882      34.82131185       3.86037114      -0.77645833      -0.22103719      -0.28769875       0.00216200       0.00094882      -0.00019488      -1.08746493
O        1.95285926      34.72354661       5.74603725       0.83401165       0.95591947      -0.39861499       0.00065358      -0.00118237       0.00051209      -1.10830903
O        1.96979475      34.82093271       1.96977549       0.00000000       0.00000000       0.00000000      -0.04470637       0.30886168      -0.41758024      -1.10935211
O        1.95878784      37.71299878       5.75338960       0.68402208      -1.66196602      -0.02671360      -0.00018155      -0.00045980       0.00042348      -1.10944176
O        1.96979704      37.60655574       1.96977432       0.00000000       0.00000000       0.00000000      -0.03766415      -0.29914208      -0.42491613      -1.11018157
O        0.00002932      37.60655557       0.00000536       0.00000000       0.00000000       0.00000000      -0.00151979      -1.35226657      -0.28636989      -1.11826634
O        0.00164690      37.60916026       3.86864935       1.27110927      -0.79409535      -0.82480734      -0.00051399       0.00069566      -0.00016025      -1.08687234
Ce       3.93956499      38.99941938       1.96977448       0.00000000       0.00000000       0.00000000      -0.03753061       0.02177424      -1.86882210       2.27341413
Ce       3.91125308      39.00183656       5.59817956      -0.76367513       2.63166178      -3.97887302       0.00313353      -0.00211580      -0.00378221       2.14830780
Ce       1.96979937      41.78508687       0.00000628       0.00000000       0.00000000       0.00000000      -0.00275643      -0.02208243       3.12564167       2.16943765
Ce       1.96849865      41.78735707       3.95762288       1.22327428      -3.40294958      -4.12669032      -0.00195693      -0.00120752       0.00066163       2.25810885
O        3.93956626      40.39227839       0.00000725       0.00000000       0.00000000       0.00000000       0.00032598       1.36856091      -0.30552997      -1.11864400
O        3.92471245      40.39648287       3.86337150       0.55845691       1.00752742      -0.44702600      -0.00233861       0.00177714       0.00027050      -1.08729482
O        1.96232620      40.29702830       5.75187698       0.22488136       0.36358179      -0.04625476       0.00106738      -0.00017224      -0.00033211      -1.10889173
O        1.96979897      40.39227798       1.96977370       0.00000000       0.00000000       0.00000000      -0.02543078       0.30622442      -0.41026439      -1.11042905
O        1.96792274      43.28495397       5.74840025       0.28540365      -0.26248467       0.52963302       0.00226776      -0.00037531      -0.00199814      -1.10926223
O        1.96980127      43.17790101       1.96977253       0.00000000       0.00000000       0.00000000      -0.00519902      -0.28611478      -0.37955302      -1.11058116
O        0.00003355      43.17790084       0.00000358       0.00000000       0.00000000       0.00000000      -0.00522758      -1.34589338      -0.27402636      -1.11872733
O        0.00142363      43.18230733       3.87189010       0.39798730      -0.07361584       0.45174805      -0.00021714      -0.00088577      -0.00097469      -1.08656323
Ce       3.93956922      44.57076465       1.96977269       0.00000000       0.00000000       0.00000000      -0.02187783       0.05167676      -1.85819756       2.27394223
Ce       3.93954874      44.57364827       5.60078862      -0.35797776      -2.36816057      -1.28419945       0.00127747       0.00419377       0.00198807       2.14838219
Ce       1.96980360      47.35643214       0.00000449       0.00000000       0.00000000       0.00000000       0.00176320       0.00022443       3.13111111       2.17023706
Ce       1.97054559      47.35767516       3.96535960       2.08406878      -0.56929607       0.50106292       0.00302928       0.00150272       0.00247838       2.25788879
O        3.93957049      45.96362366       0.00000547       0.00000000       0.00000000       0.00000000      -0.00001804       1.34874872      -0.28237243      -1.11863554
O        3.93929987      45.96491059       3.87494014       0.18211982       1.11104834      -1.59732710      -0.00082512      -0.00146176       0.00065050      -1.08665681
O        1.97010799      45.86406535       5.75171573       0.32084682      -0.27646765      -0.12721362       0.00105616       0.00099114      -0.00150129      -1.10910940
O        1.96980320      45.96362325       1.96977192       0.00000000       0.00000000       0.00000000      -0.00332016       0.28396553      -0.36441816      -1.11142528
O        1.96968854      48.85344457       5.74982042       0.97504146       0.25888500      -0.40305636       0.00051091       0.00036834      -0.00116160      -1.10927796
O        1.96980550      48.74924628       1.96977074       0.00000000       0.00000000       0.00000000       0.00048500      -0.28601424      -0.36350172      -1.11136413
O        0.00003778      48.74924611       0.00000179       0.00000000       0.00000000       0.00000000      -0.00307543      -1.34881922      -0.27848860      -1.11872101
O        0.00038889      48.75089527       3.87514865      -0.30273634      -0.41368108      -0.35084969      -0.00075748      -0.00208717      -0.00085873      -1.08679581
Ce       3.93957345      50.14210992       1.96977090       0.00000000       0.00000000       0.00000000      -0.00376008       0.00778191      -1.85114825       2.27458429
Ce       3.93988165      50.14394582       5.60077147       0.44156018      -1.15087762      -0.98537438      -0.00445579      -0.00146676       0.00052845       2.14782953
Ce       1.96980782      52.92777741       0.00000270       0.00000000       0.00000000       0.00000000      -0.00054020       0.00016747       3.13139444       2.17021036
Ce       1.96960756      52.92782440       3.96520057      -0.74992916       3.70354062      -3.24428831      -0.00168550       0.00250289       0.00381975       2.25793409
O        3.93957472      51.53496893       0.00000368       0.00000000       0.00000000       0.00000000       0.00009457       1.34767675      -0.27868292      -1.11863947
O        3.93927658      51.53464140       3.87530929       0.22678509       0.59355564      -0.30270786       0.00202068       0.00055940       0.00077485      -1.08670866
O        1.96960239      51.43317832       5.75064134       0.08937971       0.79223874      -1.25497638       0.00189008      -0.00106669      -0.00121107      -1.10931122
O        1.96980743      51.53496852       1.96977013       0.00000000       0.00000000       0.00000000      -0.00188999       0.28491631      -0.36346569      -1.11134171
O        1.97014996      54.42311262       5.75039458       0.66223821      -0.02784428      -0.29307147       0.00181717      -0.00002114      -0.00117300      -1.10934961
O        1.96980973      54.32059155       1.96976896       0.00000000       0.00000000       0.00000000       0.00206433      -0.28551834      -0.36379583      -1.11135304
O        0.00004201      54.32059138       0.00000000       0.00000000       0.00000000       0.00000000       0.00027243      -1.34823939      -0.27912183      -1.11865377
O        0.00005674      54.32163557       3.87534471       0.85713097      -0.05513283      -0.04807505       0.00159933      -0.00026713      -0.00099773      -1.08672953
Ce       7.87907145       0.00000249       1.96978962       0.00000000       0.00000000       0.00000000      -0.00114011      -0.02123731      -1.86023049       2.27428913
Ce       7.87674274      -0.00201148       5.59981869      -1.27825333      -0.19260202      -2.73343985      -0.00054668      -0.00461746       0.00776353       2.14761305
Ce       5.90930583       2.78566999       0.00002142       0.00000000       0.00000000       0.00000000      -0.01073936      -0.00166335       3.12538699       2.17031312
Ce       5.90705704       2.78105640       3.96417760      -2.17269075       2.95534431      -1.39630671      -0.00410897       0.00260820      -0.00286115       2.25745440
O        7.87907273       1.39286151       0.00002240       0.00000000       0.00000000       0.00000000       0.00455250       1.35069514      -0.27853669      -1.11881304
O        7.87987388       1.39130568       3.87527251       0.21132159      -1.02446494       0.19796514      -0.00045147       0.00310075       0.00120215      -1.08680737
O        5.90915187       1.28923069       5.74874559      -0.27638899      -0.14118366      -0.88748579       0.00343103       0.00469209      -0.00171062      -1.10909116
O        5.90930544       1.39286110       1.96978885       0.00000000       0.00000000       0.00000000       0.00169025       0.28831751      -0.35634644      -1.11114848
O        5.91181884       4.27749913       5.75347948      -1.18649389      -0.77544558      -0.99409023       0.00457969      -0.00338836      -0.00163541      -1.10959494
O        5.90930773       4.17848413       1.96978768       0.00000000       0.00000000       0.00000000       0.00656902      -0.27936931      -0.36324209      -1.11174953
O        3.93954002       4.17848396       0.00001872       0.00000000       0.00000000       0.00000000       0.00530484      -1.34544976      -0.27727081      -1.11873984
O        3.93973695       4.17839140       3.87611432       0.46914954      -0.06163213       1.25991751       0.00201330      -0.00464957      -0.00248036      -1.08660197
Ce       7.87907568       5.57134776       1.96978784       0.00000000       0.00000000       0.00000000      -0.03926864      -0.07715237      -1.87490427       2.27342987
Ce       7.86583374       5.56089740       5.60082988       1.86030534      -6.73177889      -4.56244565       0.00034146       0.00218914       0.00132741       2.14767361
Ce       5.90931006       8.35701526       0.00001964       0.00000000       0.00000000       0.00000000      -0.04222912       0.00662137       3.11641302       2.17043209
Ce       5.89775384       8.34802988       3.95886569      -1.66301851       1.91582013      -3.14919384      -0.00284243       0.00316617       0.00106346       2.25713253
O        7.87907695       6.96420678       0.00002061       0.00000000       0.00000000       0.00000000       0.02660901       1.35544131      -0.27809029      -1.11943150
O        7.87638057       6.95599619       3.87367427      -1.01074502       0.51348036       0.18236303      -0.00038888       0.00349415      -0.00053236      -1.08701861
O        5.90770467       6.85548109       5.74703070      -1.25650555      -0.70316507       1.95601692       0.00160434       0.00100696       0.00019049      -1.10873008
O        5.90930967       6.96420636       1.96978706       0.00000000       0.00000000       0.00000000      -0.00140914       0.28966355      -0.35918320      -1.11096966
O        5.89791082       9.83604660       5.75428170      -0.72617266      -0.66501238       0.14858602      -0.00014698      -0.00271389      -0.00239916      -1.10881770
O        5.90931196       9.74982940       1.96978589       0.00000000       0.00000000       0.00000000      -0.00295315      -0.28870829      -0.37861291      -1.11194873
O        3.93954425       9.74982923       0.00001693       0.00000000       0.00000000       0.00000000       0.01479656      -1.35367098      -0.28476787      -1.11880207
O        3.93468166       9.74669567       3.87324566      -0.82760096       1.59522519       0.11591611       0.00196280      -0.00182218       0.00118192      -1.08715177
Ce       7.87907991      11.14269303       1.96978605       0.00000000       0.00000000       0.00000000      -0.15044466      -0.12681465      -1.86583820       2.27232981
Ce       7.81088304      11.13319513       5.59965503      -2.27033694       0.67494427      -1.44847438      -0.00235830       0.00086132       0.00573301       2.14416504
Ce       5.90931429      13.92836053       0.00001785       0.00000000       0.00000000       0.00000000      -0.08788922       0.05209038       3.12700486       2.16863465
Ce       5.87947457      13.92982050       3.93779606      -2.74702291      -5.26878329       1.06704640       0.00136674       0.00639677       0.00170797       2.25812721
O        7.87908118      12.53555204       0.00001882       0.00000000       0.00000000       0.00000000       0.08445144       1.35854860      -0.27509568      -1.12003601
O        7.85455688      12.51650130       3.86366602       0.92472969       0.08689206       0.84789702      -0.00154311      -0.00127740      -0.00369504      -1.08654213
O        5.88941940      12.41332486       5.75417614      -1.68438433       0.68352542       0.11327287      -0.00125341       0.00406364       0.00000252      -1.11031449
O        5.90931389      12.53555163       1.96978527       0.00000000       0.00000000       0.00000000      -0.04115801       0.28440051      -0.42433814      -1.10953283
O        5.84716867      15.39483880       5.74983475      -0.93132205      -1.31534529       0.48676004       0.00186194      -0.00509450      -0.00207086      -1.10519910
O        5.90931619      15.32117466       1.96978410       0.00000000       0.00000000       0.00000000      -0.20585862      -0.33544260      -0.56554522      -1.10775816
O        3.93954847      15.32117450       0.00001514       0.00000000       0.00000000       0.00000000       0.00815186      -1.37863248      -0.31585522      -1.11875832
O        3.91963395      15.31678801       3.86003987      -0.13720706      -0.01334053      -0.54757874       0.00187161      -0.00130372       0.00028974      -1.08740902
Ce       7.87908414      16.71403830       1.96978426       0.00000000       0.00000000       0.00000000      -0.26247383       0.04503884      -1.78226536       2.27214646
Ce       7.75230278      16.69666433       5.59447000      -0.77144296      -1.10028748      -2.55540524       0.00057779       0.00038023       0.00068291       2.14788198
Ce       5.90931852      19.49970580       0.00001606       0.00000000       0.00000000       0.00000000      -0.01431028       0.02941437       3.14320113       2.16820335
Ce       5.88996122      19.50903792       3.94293057      -5.55408976       0.87039332      -0.73630376       0.00108414       0.00281690      -0.00098031       2.26001358
O        7.87908541      18.10689731       0.00001703       0.00000000       0.00000000       0.00000000       0.04008875       1.35974379      -0.30462868      -1.11963642
O        7.83938163      18.09011692       3.85568389      -0.88473597       0.20965292      -0.22199713      -0.00221180       0.00307393      -0.00408774      -1.08680391
O        5.84041192      17.98857427       5.75048178      -0.89653764       0.32165753      -0.72494548      -0.00172892       0.00371094       0.00027854      -1.10692632
O        5.90931812      18.10689690       1.96978348       0.00000000       0.00000000       0.00000000      -0.08868245       0.30141550      -0.46540489      -1.10948694
O        5.87469257      20.97304889       5.73504480      -0.80839575      -0.42383540       0.22343231       0.00040223      -0.00479430       0.00176981      -1.10192227
O        5.90932042      20.89251993       1.96978231       0.00000000       0.00000000       0.00000000      -0.12916248      -0.32846920      -0.47812030      -1.10687220
O        3.93955270      20.89251977       0.00001336       0.00000000       0.00000000       0.00000000       0.00026604      -1.37072101      -0.30778259      -1.11799741
O        3.92660372      20.89252362       3.86109664      -0.08119182      -0.37715499      -0.32953294       0.00112098      -0.00379072       0.00003069      -1.08638036
Ce       7.87908837      22.28538357       1.96978247       0.00000000       0.00000000       0.00000000       0.02052939       0.05854101      -1.70702490       2.27582192
Ce       7.85266072      22.26608564       5.59710864      -0.72963607       2.46078186      -2.85041741       0.00108353      -0.00121469      -0.00279417       2.14997339